LAMMPS data file. Atoms-only demo

8 atoms
0 bonds
0 angles
0 dihedrals
0 impropers
1 atom types
1 bond types
0 angle types
0 dihedral types
0 improper types
0.0 10.0 xlo xhi
0.0 10.0 ylo yhi
0.0 0.0 zlo zhi

Masses

1 1.0

Atoms # full

1 1 1 0.0  2.0 2.0 0.0
2 1 1 0.0  4.0 2.0 0.0
3 1 1 0.0  6.0 2.0 0.0
4 1 1 0.0  8.0 2.0 0.0
5 1 1 0.0  2.0 4.0 0.0
6 1 1 0.0  4.0 4.0 0.0
7 1 1 0.0  6.0 4.0 0.0
8 1 1 0.0  8.0 4.0 0.0
